god help Fortranians                                                    
Freq      RHF                                                         STO-3G              
Number of atoms                            I                3
Info1-9                                    I   N=           9
          12          10           0           0           0         101
           6           1           2
Charge                                     I                0
Multiplicity                               I                1
Number of electrons                        I               10
Number of alpha electrons                  I                5
Number of beta electrons                   I                5
Number of basis functions                  I                7
Number of independent functions            I                7
Number of point charges in /Mol/           I                0
Number of translation vectors              I                0
Atomic numbers                             I   N=           3
           8           1           1
Nuclear charges                            R   N=           3
  8.00000000E+00  1.00000000E+00  1.00000000E+00
Current cartesian coordinates              R   N=           9
  0.00000000E+00  0.00000000E+00  0.00000000E+00  0.00000000E+00  0.00000000E+00
  1.81413709E+00  1.71038485E+00  0.00000000E+00 -6.04712363E-01
Force Field                                I                0
Int Atom Types                             I   N=           3
           0           0           0
MM charges                                 R   N=           3
  0.00000000E+00  0.00000000E+00  0.00000000E+00
Integer atomic weights                     I   N=           3
          16           1           1
Real atomic weights                        R   N=           3
  1.59949146E+01  1.00782504E+00  1.00782504E+00
Atom fragment info                         I   N=           3
           0           0           0
Atom residue num                           I   N=           3
           0           0           0
Nuclear spins                              I   N=           3
           0           1           1
Nuclear ZEff                               R   N=           3
 -5.60000000E+00 -1.00000000E+00 -1.00000000E+00
Nuclear QMom                               R   N=           3
  0.00000000E+00  0.00000000E+00  0.00000000E+00
Nuclear GFac                               R   N=           3
  0.00000000E+00  2.79284600E+00  2.79284600E+00
MicOpt                                     I   N=           3
          -1          -1          -1
Number of contracted shells                I                4
Number of primitive shells                 I               12
Pure/Cartesian d shells                    I                0
Pure/Cartesian f shells                    I                0
Highest angular momentum                   I                1
Largest degree of contraction              I                3
Shell types                                I   N=           4
           0          -1           0           0
Number of primitives per shell             I   N=           4
           3           3           3           3
Shell to atom map                          I   N=           4
           1           1           2           3
Primitive exponents                        R   N=          12
  1.30709321E+02  2.38088661E+01  6.44360831E+00  5.03315132E+00  1.16959612E+00
  3.80388960E-01  3.42525091E+00  6.23913730E-01  1.68855404E-01  3.42525091E+00
  6.23913730E-01  1.68855404E-01
Contraction coefficients                   R   N=          12
  1.54328967E-01  5.35328142E-01  4.44634542E-01 -9.99672292E-02  3.99512826E-01
  7.00115469E-01  1.54328967E-01  5.35328142E-01  4.44634542E-01  1.54328967E-01
  5.35328142E-01  4.44634542E-01
P(S=P) Contraction coefficients            R   N=          12
  0.00000000E+00  0.00000000E+00  0.00000000E+00  1.55916275E-01  6.07683719E-01
  3.91957393E-01  0.00000000E+00  0.00000000E+00  0.00000000E+00  0.00000000E+00
  0.00000000E+00  0.00000000E+00
Coordinates of each shell                  R   N=          12
  0.00000000E+00  0.00000000E+00  0.00000000E+00  0.00000000E+00  0.00000000E+00
  0.00000000E+00  0.00000000E+00  0.00000000E+00  1.81413709E+00  1.71038485E+00
  0.00000000E+00 -6.04712363E-01
Constraint Structure                       R   N=           9
  0.00000000E+00  0.00000000E+00  0.00000000E+00  0.00000000E+00  0.00000000E+00
  1.81413709E+00  1.71038485E+00  0.00000000E+00 -6.04712363E-01
Num ILSW                                   I              100
ILSW                                       I   N=         100
           0           0           0           0           2           0
           0           0           0           0           0          -1
           0           0           0           0           2           0
           0           0           0           0           1           0
           1           1           0           0           0           0
           0           0      100000           0          -1           0
           0           0           0           0           0           0
           0           0           0           1           0           0
           0           0           1           0           0           0
           0           0           4          40           0           0
           0           0           0           0           0           0
           0           0           0           0           0           0
           0           0           0           0           0           0
           0           0           0           0           0           0
           0           0           0           0           0           0
           0           0           0           0           0           0
           0           0           0           0
Num RLSW                                   I               40
RLSW                                       R   N=          40
  1.00000000E+00  1.00000000E+00  1.00000000E+00  1.00000000E+00  1.00000000E+00
  0.00000000E+00  0.00000000E+00  1.00000000E+00  0.00000000E+00  0.00000000E+00
  0.00000000E+00  0.00000000E+00  1.00000000E+00  0.00000000E+00  0.00000000E+00
  0.00000000E+00  0.00000000E+00  1.00000000E+00  0.00000000E+00  0.00000000E+00
  0.00000000E+00  0.00000000E+00  1.00000000E+00  0.00000000E+00  0.00000000E+00
  0.00000000E+00  0.00000000E+00  1.00000000E+00  0.00000000E+00  0.00000000E+00
  0.00000000E+00  0.00000000E+00  1.00000000E+00  0.00000000E+00  0.00000000E+00
  0.00000000E+00  0.00000000E+00  0.00000000E+00  1.00000000E+00  1.00000000E+00
MxBond                                     I                2
NBond                                      I   N=           3
           2           1           1
IBond                                      I   N=           6
           2           3           1           0           1           0
RBond                                      R   N=           6
  1.00000000E+00  1.00000000E+00  1.00000000E+00  0.00000000E+00  1.00000000E+00
  0.00000000E+00
Virial Ratio                               R      2.005050177811524E+00
SCF Energy                                 R     -7.496072327559716E+01
Total Energy                               R     -7.496072327559716E+01
RMS Force                                  R      3.030581779399951E-02
RMS Density                                R      2.995823033069632E-10
External E-field                           R   N=          35
  0.00000000E+00  0.00000000E+00  0.00000000E+00  0.00000000E+00  0.00000000E+00
  0.00000000E+00  0.00000000E+00  0.00000000E+00  0.00000000E+00  0.00000000E+00
  0.00000000E+00  0.00000000E+00  0.00000000E+00  0.00000000E+00  0.00000000E+00
  0.00000000E+00  0.00000000E+00  0.00000000E+00  0.00000000E+00  0.00000000E+00
  0.00000000E+00  0.00000000E+00  0.00000000E+00  0.00000000E+00  0.00000000E+00
  0.00000000E+00  0.00000000E+00  0.00000000E+00  0.00000000E+00  0.00000000E+00
  0.00000000E+00  0.00000000E+00  0.00000000E+00  0.00000000E+00  0.00000000E+00
IOpCl                                      I                0
IROHF                                      I                0
Alpha Orbital Energies                     R   N=           7
 -2.02345374E+01 -1.26079012E+00 -6.23930391E-01 -4.40514248E-01 -3.86967751E-01
  5.92962697E-01  7.54103077E-01
Alpha MO coefficients                      R   N=          49
  9.94124173E-01  2.65646412E-02  3.39071692E-03 -3.26909824E-16  2.39759892E-03
 -5.97110158E-03 -5.97110158E-03 -2.33252921E-01  8.35391214E-01  1.00654948E-01
  1.64985183E-16  7.11737961E-02  1.59545196E-01  1.59545196E-01 -2.96785913E-11
  1.47458428E-10 -3.46254122E-01  1.30661947E-15  4.89677276E-01  4.42373543E-01
 -4.42373543E-01  9.98039496E-02 -5.20660062E-01  6.46399038E-01 -1.50625228E-14
  4.57073143E-01  2.73192492E-01  2.73192492E-01  1.39838422E-15 -9.25444325E-15
  9.00001676E-15  1.00000000E+00  5.58798369E-15  4.65057607E-15  6.07730605E-15
 -1.34198850E-01  8.90818103E-01  5.83123555E-01  1.83873544E-15  4.12330620E-01
 -8.00005817E-01 -8.00005818E-01  1.86839758E-11 -1.35062330E-10  5.79060601E-01
 -7.40558996E-17 -8.18915356E-01  8.33287930E-01 -8.33287930E-01
Total SCF Density                          R   N=          28
  2.10530125E+00 -4.40825639E-01  1.93934212E+00  8.88118202E-02 -5.04755662E-01
  1.09573310E+00 -9.36774553E-16 -2.56569254E-15 -2.34661551E-15  2.00000000E+00
  6.27994403E-02 -3.56916151E-01  2.66141978E-01 -1.29182053E-15  9.07542301E-01
 -3.17694196E-02 -1.82327696E-02  7.89129368E-02  2.28379284E-15  7.05660686E-01
  5.91637625E-01 -3.17694196E-02 -1.82327696E-02  6.91607588E-01  2.82519727E-15
 -1.60820399E-01 -1.91139780E-01  5.91637625E-01
QEq coupling tensors                       R   N=          18
 -9.32193536E-01 -8.99683874E-15  2.62767279E+00  1.07944901E+00 -4.99789043E-15
 -1.69547925E+00  2.17620369E-01 -1.28265116E-16  2.78457805E-01  2.23538867E-02
  2.59467526E-16 -4.96078174E-01 -4.02728038E-01  2.27221668E-16  2.78457805E-01
  2.41680169E-01 -1.98571712E-16  1.24270233E-01
Mulliken Charges                           R   N=           3
 -3.72485064E-01  1.86242532E-01  1.86242532E-01
ONIOM Charges                              I   N=          16
           0           0           0           0           0           0
           0           0           0           0           0           0
           0           0           0           0
ONIOM Multiplicities                       I   N=          16
           1           0           0           0           0           0
           0           0           0           0           0           0
           0           0           0           0
Atom Layers                                I   N=           3
           1           1           1
Atom Modifiers                             I   N=           3
           0           0           0
Force Field                                I                0
Int Atom Modified Types                    I   N=           3
           0           0           0
Link Atoms                                 I   N=           3
           0           0           0
Atom Modified MM Charges                   R   N=           3
  0.00000000E+00  0.00000000E+00  0.00000000E+00
Link Distances                             R   N=          12
  0.00000000E+00  0.00000000E+00  0.00000000E+00  0.00000000E+00  0.00000000E+00
  0.00000000E+00  0.00000000E+00  0.00000000E+00  0.00000000E+00  0.00000000E+00
  0.00000000E+00  0.00000000E+00
Cartesian Gradient                         R   N=           9
  5.95215277E-02  9.74909956E-16  4.20880758E-02 -2.27529615E-02 -4.20870864E-16
 -3.09545670E-02 -3.67685662E-02 -5.54039093E-16 -1.11335087E-02
Cartesian Force Constants                  R   N=          45
  7.46312859E-01 -7.20415820E-16 -6.96001577E-02 -2.03365171E-01 -2.84396083E-16
  8.90113750E-01 -6.50238894E-02  1.67298628E-17 -7.05862049E-02  5.98723431E-02
  2.44857382E-16  3.48000788E-02  3.02802468E-16 -1.83772651E-16 -2.14972473E-02
  5.60687678E-02  7.40246241E-16 -7.53189415E-01 -9.19467105E-03 -6.06459068E-16
  7.59672172E-01 -6.81288969E-01  7.03685957E-16  2.73951376E-01  5.15154627E-03
 -6.10847302E-17 -4.68740968E-02  6.76137423E-01  4.75558439E-16  3.48000789E-02
 -1.84063848E-17  1.67042788E-16 -1.33028315E-02 -1.33787173E-16 -6.42601227E-16
 -2.14972474E-02  1.47296404E-01 -4.55850159E-16 -1.36924335E-01  7.97808760E-02
  3.03656600E-16 -6.48275706E-03 -2.27077280E-01  1.52193558E-16  1.43407092E-01
Dipole Moment                              R   N=           3
  5.42571203E-01  2.79332041E-16  3.83655777E-01
Dipole Derivatives                         R   N=          27
 -1.77217676E-02 -2.32119195E-16  3.11306414E-02  2.42298788E-15 -6.34443416E-01
  4.31376956E-16  3.11306413E-02 -2.91801006E-17 -3.97344551E-02  1.76148965E-01
 -1.58936594E-16 -9.97534932E-02 -2.78465911E-16  3.17221708E-01 -1.03233399E-15
 -4.96676847E-02  4.05822379E-16 -1.47420854E-01 -1.58427197E-01  3.91055789E-16
  6.86228518E-02 -2.14452197E-15  3.17221708E-01  6.00957030E-16  1.85370434E-02
 -3.76642279E-16  1.87155309E-01
Polarizability                             R   N=           6
  3.07519488E+00 -1.76271620E-16  4.75554667E-02 -1.69490854E+00  1.97540203E-16
  4.27367621E+00
Polarizability Derivatives                 R   N=          54
 -4.48850148E+00 -2.77827379E-16  2.88057649E-02 -4.04769151E-02 -7.20914542E-16
 -1.49280112E+00 -4.90124494E-15 -1.42592321E+00  7.63962466E-16 -8.37739666E-16
 -1.00827997E+00 -6.87535566E-16 -3.76461061E-01 -8.15501110E-16  2.03687517E-02
 -1.01764779E+00  2.19577976E-16 -3.85295857E+00 -2.98284570E-01  5.19334577E-16
 -3.77732590E-02  1.76484280E+00 -1.42391417E-17  5.55908832E-01  1.75499553E-15
 -3.44227768E-01 -5.76908088E-17  1.00899177E-15  1.99923154E+00 -1.01040570E-16
  4.03320932E-01  4.73591273E-16  2.28663277E-02 -7.63197516E-01 -6.36600945E-17
  5.57647279E+00  4.78678605E+00 -1.22237985E-16  8.96749416E-03 -1.72436589E+00
  7.35153684E-16  9.36892290E-01  3.14624941E-15  1.77015098E+00 -4.67733230E-16
 -1.71252105E-16 -9.90951565E-01  7.88576136E-16 -2.68598705E-02  3.41909837E-16
 -4.32350794E-02  1.78084530E+00 -3.66486683E-17 -1.72351422E+00
HyperPolarizability                        R   N=          10
  6.88967190E+00  4.32365827E-15 -4.64746687E-02 -1.70537121E-15 -2.52637944E+00
 -8.89340501E-16 -3.28625534E-02  8.29207957E-01  6.76377986E-15  7.98445173E+00
